TITLE="RCM-BATSRUS: T=0000:09:00"
VARIABLES="X [R]","Y [R]","I","J","COLAT","ALOCT","MLT","BNDLOC","VM","|B| [nT]","V","BIRK(NH)","PEDLAM [S]","PEDPSI [S]","HALL [S]","EFLUX","EAVG","N(RCM) [cm-3]","T(RCM) [eV]","P(RCM) [nPa]","PV_gamma","Birk_mhd(NH)","N(MHD) [cm-3]","T(MHD) [eV]","P(MHD) [nPa]","sigmaH(MHD)","sigmaP(MHD)"
ZONE T="RCM-2D-0000:09:00" I=  78, J=  49, F=POINT
AUXDATA TIME="0000:09:00"
AUXDATA ITERATION="0000054"
AUXDATA SAVEDATE="Save Date: 2022/09/28 at 19:21:52"
   7.278E+00   4.119E+00   1   1   1.000E+00   0.000E+00   1.200E+01   2.193E+01  -1.000E-09  -1.000E+00   1.270E+04   0.000E+00   8.001E+00   8.000E+00   0.000E+00   0.000E+00   0.000E+00  -1.000E+00  -1.000E+00  -1.670E-26  -6.667E-01   3.104E-02  -5.988E+20   1.044E-08  -1.000E+09   0.000E+00   5.000E+00
   7.278E+00   4.119E+00   2   1   2.806E+00   0.000E+00   1.200E+01   2.193E+01  -1.000E-09  -1.000E+00   1.250E+04   0.000E+00   8.005E+00   8.000E+00   0.000E+00   0.000E+00   0.000E+00  -1.000E+00  -1.000E+00  -1.670E-26  -6.667E-01   3.055E-02  -5.988E+20   1.044E-08  -1.000E+09   0.000E+00   5.000E+00
   7.278E+00   4.119E+00   3   1   4.560E+00   0.000E+00   1.200E+01   2.193E+01  -1.000E-09  -1.000E+00   1.218E+04   0.000E+00   8.013E+00   8.000E+00   0.000E+00   0.000E+00   0.000E+00  -1.000E+00  -1.000E+00  -1.670E-26  -6.667E-01   2.961E-02  -5.988E+20   1.044E-08  -1.000E+09   0.000E+00   5.000E+00
   7.278E+00   4.119E+00   4   1   6.234E+00   0.000E+00   1.200E+01   2.193E+01  -1.000E-09  -1.000E+00   1.176E+04   0.000E+00   8.024E+00   8.000E+00   0.000E+00   0.000E+00   0.000E+00  -1.000E+00  -1.000E+00  -1.670E-26  -6.667E-01   2.760E-02  -5.988E+20   1.044E-08  -1.000E+09   0.000E+00   5.000E+00
   7.278E+00   4.119E+00   5   1   7.778E+00   0.000E+00   1.200E+01   2.193E+01  -1.000E-09  -1.000E+00   1.129E+04   0.000E+00   8.037E+00   8.000E+00   0.000E+00   0.000E+00   0.000E+00  -1.000E+00  -1.000E+00  -1.670E-26  -6.667E-01   2.459E-02  -5.988E+20   1.044E-08  -1.000E+09   0.000E+00   5.000E+00
   7.278E+00   4.119E+00   6   1   9.121E+00   0.000E+00   1.200E+01   2.193E+01  -1.000E-09  -1.000E+00   1.082E+04   0.000E+00   8.052E+00   8.000E+00   0.000E+00   0.000E+00   0.000E+00  -1.000E+00  -1.000E+00  -1.670E-26  -6.667E-01   2.200E-02  -5.988E+20   1.044E-08  -1.000E+09   0.000E+00   5.000E+00
   7.278E+00   4.119E+00   7   1   1.022E+01   0.000E+00   1.200E+01   2.193E+01  -1.000E-09  -1.000E+00   1.041E+04   0.000E+00   8.065E+00   8.000E+00   0.000E+00   0.000E+00   0.000E+00  -1.000E+00  -1.000E+00  -1.670E-26  -6.667E-01   1.995E-02  -5.988E+20   1.044E-08  -1.000E+09   0.000E+00   5.000E+00
   7.278E+00   4.119E+00   8   1   1.112E+01   0.000E+00   1.200E+01   2.193E+01  -1.000E-09  -1.000E+00   1.005E+04   0.000E+00   8.077E+00   8.000E+00   0.000E+00   0.000E+00   0.000E+00  -1.000E+00  -1.000E+00  -1.670E-26  -6.667E-01   1.836E-02  -5.988E+20   1.044E-08  -1.000E+09   0.000E+00   5.000E+00
   7.278E+00   4.119E+00   9   1   1.188E+01   0.000E+00   1.200E+01   2.193E+01  -1.000E-09  -1.000E+00   9.737E+03   0.000E+00   8.089E+00   8.000E+00   0.000E+00   0.000E+00   0.000E+00  -1.000E+00  -1.000E+00  -1.670E-26  -6.667E-01   1.708E-02  -5.988E+20   1.044E-08  -1.000E+09   0.000E+00   5.000E+00
   7.278E+00   4.119E+00  10   1   1.257E+01   0.000E+00   1.200E+01   2.193E+01  -1.000E-09  -1.000E+00   9.447E+03   0.000E+00   8.099E+00   8.000E+00   0.000E+00   0.000E+00   0.000E+00  -1.000E+00  -1.000E+00  -1.670E-26  -6.667E-01   1.602E-02  -5.988E+20   1.044E-08  -1.000E+09   0.000E+00   5.000E+00
   7.278E+00   4.119E+00  11   1   1.321E+01   0.000E+00   1.200E+01   2.193E+01  -1.000E-09  -1.000E+00   9.176E+03   0.000E+00   8.110E+00   8.000E+00   0.000E+00   0.000E+00   0.000E+00  -1.000E+00  -1.000E+00  -1.670E-26  -6.667E-01   1.509E-02  -5.988E+20   1.044E-08  -1.000E+09   0.000E+00   5.000E+00
   7.278E+00   4.119E+00  12   1   1.381E+01   0.000E+00   1.200E+01   2.193E+01  -1.000E-09  -1.000E+00   8.914E+03   0.000E+00   8.121E+00   8.000E+00   0.000E+00   0.000E+00   0.000E+00  -1.000E+00  -1.000E+00  -1.670E-26  -6.667E-01   1.428E-02  -5.988E+20   1.044E-08  -1.000E+09   0.000E+00   5.000E+00
   7.278E+00   4.119E+00  13   1   1.439E+01   0.000E+00   1.200E+01   2.193E+01  -1.000E-09  -1.000E+00   8.661E+03   0.000E+00   8.132E+00   8.000E+00   0.000E+00   0.000E+00   0.000E+00  -1.000E+00  -1.000E+00  -1.670E-26  -6.667E-01   1.359E-02  -5.988E+20   1.044E-08  -1.000E+09   0.000E+00   5.000E+00
   7.278E+00   4.119E+00  14   1   1.494E+01   0.000E+00   1.200E+01   2.193E+01  -1.000E-09  -1.000E+00   8.414E+03   0.000E+00   8.142E+00   8.000E+00   0.000E+00   0.000E+00   0.000E+00  -1.000E+00  -1.000E+00  -1.670E-26  -6.667E-01   1.296E-02  -5.988E+20   1.044E-08  -1.000E+09   0.000E+00   5.000E+00
   7.278E+00   4.119E+00  15   1   1.549E+01   0.000E+00   1.200E+01   2.193E+01  -1.000E-09  -1.000E+00   8.171E+03   0.000E+00   8.154E+00   8.000E+00   0.000E+00   0.000E+00   0.000E+00  -1.000E+00  -1.000E+00  -1.670E-26  -6.667E-01   1.245E-02  -5.988E+20   1.044E-08  -1.000E+09   0.000E+00   5.000E+00
   7.278E+00   4.119E+00  16   1   1.602E+01   0.000E+00   1.200E+01   2.193E+01  -1.000E-09  -1.000E+00   7.932E+03   0.000E+00   8.165E+00   8.000E+00   0.000E+00   0.000E+00   0.000E+00  -1.000E+00  -1.000E+00  -1.670E-26  -6.667E-01   1.197E-02  -5.988E+20   1.044E-08  -1.000E+09   0.000E+00   5.000E+00
   7.278E+00   4.119E+00  17   1   1.654E+01   0.000E+00   1.200E+01   2.193E+01  -1.000E-09  -1.000E+00   7.695E+03   0.000E+00   8.176E+00   8.000E+00   0.000E+00   0.000E+00   0.000E+00  -1.000E+00  -1.000E+00  -1.670E-26  -6.667E-01   1.155E-02  -5.988E+20   1.044E-08  -1.000E+09   0.000E+00   5.000E+00
   7.278E+00   4.119E+00  18   1   1.706E+01   0.000E+00   1.200E+01   2.193E+01  -1.000E-09  -1.000E+00   7.460E+03   0.000E+00   8.188E+00   8.000E+00   0.000E+00   0.000E+00   0.000E+00  -1.000E+00  -1.000E+00  -1.670E-26  -6.667E-01   1.106E-02  -5.988E+20   1.044E-08  -1.000E+09   0.000E+00   5.000E+00
   7.278E+00   4.119E+00  19   1   1.756E+01   0.000E+00   1.200E+01   2.193E+01  -1.000E-09  -1.000E+00   7.227E+03   0.000E+00   8.200E+00   8.000E+00   0.000E+00   0.000E+00   0.000E+00  -1.000E+00  -1.000E+00  -1.670E-26  -6.667E-01   9.913E-03  -5.988E+20   1.044E-08  -1.000E+09   0.000E+00   5.000E+00
   7.278E+00   4.119E+00  20   1   1.807E+01   0.000E+00   1.200E+01   2.193E+01  -1.000E-09  -1.000E+00   6.995E+03   0.000E+00   8.213E+00   8.000E+00   0.000E+00   0.000E+00   0.000E+00  -1.000E+00  -1.000E+00  -1.670E-26  -6.667E-01   8.773E-03  -5.988E+20   1.044E-08  -1.000E+09   0.000E+00   5.000E+00
   7.278E+00   4.119E+00  21   1   1.857E+01   0.000E+00   1.200E+01   2.193E+01   1.815E+00   8.116E-08   6.766E+03   0.000E+00   8.226E+00   8.000E+00   0.000E+00   0.000E+00   0.000E+00  -1.000E+00  -1.000E+00  -1.670E-26  -6.667E-01   7.630E-03   1.591E+01   5.892E+02   1.500E+00   0.000E+00   5.000E+00
   7.279E+00   3.439E+00  22   1   1.906E+01   0.000E+00   1.200E+01   2.193E+01   3.027E+00   8.858E-08   6.538E+03   0.000E+00   8.239E+00   8.000E+00   0.000E+00   3.419E-01   1.503E+03   3.635E+00   1.453E+03   1.695E+00   4.244E+24   6.493E-03   2.017E+01   5.361E+02   1.730E+00   0.000E+00   5.000E+00
   7.225E+00   2.895E+00  23   1   1.956E+01   0.000E+00   1.200E+01   2.193E+01   3.657E+00   9.424E-08   6.314E+03  -3.224E-02   8.252E+00   8.000E+00   0.000E+00   1.601E-01   1.186E+03   3.075E+00   7.964E+02   1.027E+00   1.603E+24   5.352E-03   2.126E+01   5.091E+02   1.732E+00   0.000E+00   5.000E+00
   7.140E+00   2.467E+00  24   1   2.005E+01   0.000E+00   1.200E+01   2.193E+01   4.172E+00   1.005E-07   6.091E+03   5.926E-01   8.266E+00   8.000E+00   0.000E+00   2.152E-01   1.352E+03   3.591E+00   9.185E+02   1.325E+00   1.487E+24   4.221E-03   2.183E+01   4.866E+02   1.700E+00   0.000E+00   5.000E+00
   7.030E+00   2.103E+00  25   1   2.053E+01   0.000E+00   1.200E+01   2.193E+01   4.668E+00   1.074E-07   5.872E+03  -7.472E-01   8.281E+00   8.000E+00   0.000E+00   1.084E-01   1.016E+03   3.209E+00   6.349E+02   8.378E-01   7.104E+23   3.122E-03   2.222E+01   4.655E+02   1.655E+00   0.000E+00   5.000E+00
   6.894E+00   1.785E+00  26   1   2.102E+01   0.000E+00   1.200E+01   2.193E+01   5.187E+00   1.149E-07   5.655E+03  -8.282E-02   8.295E+00   8.000E+00   0.000E+00   9.504E-02   1.080E+03   3.356E+00   6.185E+02   8.435E-01   5.495E+23   2.029E-03   2.254E+01   4.445E+02   1.603E+00   0.000E+00   5.000E+00
   6.720E+00   1.488E+00  27   1   2.151E+01   0.000E+00   1.200E+01   2.193E+01   5.803E+00   1.225E-07   5.444E+03  -5.651E-02   8.311E+00   8.000E+00   0.000E+00   8.112E-02   1.166E+03   3.522E+00   5.992E+02   8.476E-01   4.171E+23   9.689E-04   2.283E+01   4.215E+02   1.540E+00   0.000E+00   5.000E+00
   6.578E+00   1.290E+00  28   1   2.199E+01   0.000E+00   1.200E+01   2.193E+01   6.306E+00   1.293E-07   5.233E+03  -2.230E-02   8.326E+00   8.000E+00   0.000E+00   7.043E-02   1.234E+03   3.641E+00   5.877E+02   8.517E-01   3.404E+23  -8.925E-05   2.304E+01   4.046E+02   1.491E+00   0.000E+00   5.000E+00
   6.440E+00   1.129E+00  29   1   2.247E+01   0.000E+00   1.200E+01   2.193E+01   6.820E+00   1.374E-07   5.031E+03  -1.114E-02   8.342E+00   8.000E+00   0.000E+00   8.729E-02   9.840E+02   3.729E+00   5.716E+02   8.439E-01   2.774E+23  -1.129E-03   2.324E+01   3.893E+02   1.448E+00   0.000E+00   5.000E+00
   6.294E+00   9.871E-01  30   1   2.296E+01   0.000E+00   1.200E+01   2.193E+01   7.394E+00   1.480E-07   4.829E+03  -9.839E-03   8.359E+00   8.000E+00   0.000E+00   7.713E-02   1.039E+03   3.819E+00   5.574E+02   8.376E-01   2.249E+23  -2.168E-03   2.345E+01   3.741E+02   1.404E+00   0.000E+00   5.000E+00
   6.146E+00   8.678E-01  31   1   2.344E+01   0.000E+00   1.200E+01   2.193E+01   7.988E+00   1.582E-07   4.636E+03  -1.211E-02   8.376E+00   8.000E+00   0.000E+00   6.297E-02   1.091E+03   3.852E+00   5.328E+02   8.046E-01   1.781E+23  -3.185E-03   2.365E+01   3.601E+02   1.363E+00   0.000E+00   5.000E+00
   5.996E+00   7.623E-01  32   1   2.392E+01   0.000E+00   1.200E+01   2.193E+01   8.611E+00   1.688E-07   4.443E+03  -9.553E-03   8.394E+00   8.000E+00   0.000E+00   5.321E-02   1.153E+03   3.887E+00   5.146E+02   7.818E-01   1.434E+23  -4.201E-03   2.384E+01   3.471E+02   1.324E+00   0.000E+00   5.000E+00
   5.813E+00   6.554E-01  33   1   2.441E+01   0.000E+00   1.200E+01   2.193E+01   9.406E+00   1.818E-07   4.260E+03  -5.221E-03   8.412E+00   8.000E+00   0.000E+00   6.375E-02   9.171E+02   3.942E+00   4.946E+02   7.584E-01   1.116E+23  -5.195E-03   2.407E+01   3.328E+02   1.282E+00   0.000E+00   5.000E+00
   5.631E+00   5.636E-01  34   1   2.489E+01   0.000E+00   1.200E+01   2.193E+01   1.030E+01   1.948E-07   4.079E+03  -1.725E-03   8.431E+00   8.000E+00   0.000E+00   5.314E-02   9.765E+02   4.004E+00   4.788E+02   7.414E-01   8.700E+22  -6.185E-03   2.430E+01   3.197E+02   1.243E+00   0.000E+00   5.000E+00
   5.464E+00   4.880E-01  35   1   2.538E+01   0.000E+00   1.200E+01   2.193E+01   1.127E+01   2.093E-07   3.907E+03  -8.416E-04   8.450E+00   8.000E+00   0.000E+00   4.546E-02   1.046E+03   4.092E+00   4.705E+02   7.395E-01   6.917E+22  -7.154E-03   2.453E+01   3.090E+02   1.213E+00   0.000E+00   5.000E+00
   5.317E+00   4.287E-01  36   1   2.586E+01   0.000E+00   1.200E+01   2.193E+01   1.224E+01   2.304E-07   3.738E+03  -1.507E-03   8.470E+00   8.000E+00   0.000E+00   3.814E-02   1.115E+03   4.146E+00   4.613E+02   7.305E-01   5.561E+22  -8.117E-03   2.474E+01   3.007E+02   1.191E+00   0.000E+00   5.000E+00
   5.177E+00   3.793E-01  37   1   2.635E+01   0.000E+00   1.200E+01   2.193E+01   1.322E+01   2.512E-07   3.579E+03  -1.810E-03   8.491E+00   8.000E+00   0.000E+00   5.054E-02   8.793E+02   4.204E+00   4.544E+02   7.254E-01   4.553E+22  -9.059E-03   2.494E+01   2.935E+02   1.171E+00   0.000E+00   5.000E+00
   5.045E+00   3.376E-01  38   1   2.684E+01   0.000E+00   1.200E+01   2.193E+01   1.421E+01   2.708E-07   3.424E+03  -1.573E-03   8.512E+00   8.000E+00   0.000E+00   4.431E-02   9.271E+02   4.252E+00   4.479E+02   7.194E-01   3.775E+22  -9.995E-03   2.512E+01   2.871E+02   1.154E+00   0.000E+00   5.000E+00
   4.916E+00   3.016E-01  39   1   2.733E+01   0.000E+00   1.200E+01   2.193E+01   1.522E+01   2.887E-07   3.279E+03  -1.082E-03   8.534E+00   8.000E+00   0.000E+00   3.868E-02   9.769E+02   4.300E+00   4.424E+02   7.146E-01   3.157E+22  -1.091E-02   2.528E+01   2.814E+02   1.138E+00   0.000E+00   5.000E+00
   4.792E+00   2.695E-01  40   1   2.783E+01   0.000E+00   1.200E+01   2.193E+01   1.629E+01   3.064E-07   3.138E+03  -1.239E-03   8.557E+00   8.000E+00   0.000E+00   3.349E-02   1.030E+03   4.352E+00   4.376E+02   7.112E-01   2.650E+22  -1.182E-02   2.544E+01   2.762E+02   1.124E+00   0.000E+00   5.000E+00
   4.672E+00   2.410E-01  41   1   2.833E+01   0.000E+00   1.200E+01   2.193E+01   1.742E+01   3.236E-07   3.008E+03  -9.616E-04   8.581E+00   8.000E+00   0.000E+00   2.822E-02   1.086E+03   4.349E+00   4.305E+02   6.964E-01   2.194E+22  -1.252E-02   2.559E+01   2.715E+02   1.112E+00   0.000E+00   5.000E+00
   4.531E+00   2.105E-01  42   1   2.883E+01   0.000E+00   1.200E+01   2.193E+01   1.893E+01   3.435E-07   2.883E+03  -1.791E-04   8.606E+00   8.000E+00   0.000E+00   2.157E-02   1.158E+03   4.302E+00   4.193E+02   6.681E-01   1.710E+22  -1.311E-02   2.577E+01   2.665E+02   1.099E+00   0.000E+00   5.000E+00
   4.347E+00   1.737E-01  43   1   2.934E+01   0.000E+00   1.200E+01   2.193E+01   2.139E+01   4.003E-07   2.770E+03  -2.763E-04   8.632E+00   8.000E+00   0.000E+00   2.646E-02   9.348E+02   4.342E+00   4.106E+02   6.529E-01   1.231E+22  -1.295E-02   2.600E+01   2.609E+02   1.085E+00   0.000E+00   5.000E+00
   4.174E+00   1.450E-01  44   1   2.986E+01   0.000E+00   1.200E+01   2.193E+01   2.389E+01   4.616E-07   2.662E+03  -2.844E-04   8.659E+00   8.000E+00   0.000E+00   2.032E-02   1.020E+03   4.407E+00   4.100E+02   6.528E-01   9.345E+21  -1.241E-02   2.621E+01   2.563E+02   1.075E+00   0.000E+00   5.000E+00
   4.020E+00   1.232E-01  45   1   3.038E+01   0.000E+00   1.200E+01   2.193E+01   2.633E+01   5.154E-07   2.565E+03  -4.195E-04   8.687E+00   8.000E+00   0.000E+00   1.560E-02   1.102E+03   4.470E+00   4.107E+02   6.546E-01   7.346E+21  -1.176E-02   2.638E+01   2.526E+02   1.066E+00   0.000E+00   5.000E+00
   3.885E+00   1.061E-01  46   1   3.091E+01   0.000E+00   1.200E+01   2.193E+01   2.872E+01   5.621E-07   2.471E+03  -4.151E-04   8.717E+00   8.000E+00   0.000E+00   2.186E-02   8.635E+02   4.518E+00   4.118E+02   6.551E-01   5.915E+21  -1.107E-02   2.652E+01   2.497E+02   1.059E+00   0.000E+00   5.000E+00
   3.763E+00   9.203E-02  47   1   3.145E+01   0.000E+00   1.200E+01   2.193E+01   3.116E+01   6.053E-07   2.388E+03  -3.176E-04   8.748E+00   8.000E+00   0.000E+00   1.728E-02   9.179E+02   4.553E+00   4.128E+02   6.533E-01   4.813E+21  -1.025E-02   2.665E+01   2.473E+02   1.054E+00   0.000E+00   5.000E+00
   3.651E+00   7.994E-02  48   1   3.201E+01   0.000E+00   1.200E+01   2.193E+01   3.376E+01   6.467E-07   2.306E+03  -1.730E-04   8.782E+00   8.000E+00   0.000E+00   1.321E-02   9.752E+02   4.577E+00   4.143E+02   6.502E-01   3.920E+21  -9.375E-03   2.676E+01   2.452E+02   1.050E+00   0.000E+00   5.000E+00
   3.542E+00   6.885E-02  49   1   3.259E+01   0.000E+00   1.200E+01   2.193E+01   3.672E+01   6.843E-07   2.236E+03  -1.794E-05   8.817E+00   8.000E+00   0.000E+00   9.397E-03   1.038E+03   4.580E+00   4.158E+02   6.431E-01   3.142E+21  -8.316E-03   2.687E+01   2.435E+02   1.047E+00   0.000E+00   5.000E+00
   3.440E+00   5.810E-02  50   1   3.319E+01   0.000E+00   1.200E+01   2.193E+01   4.039E+01   7.654E-07   2.166E+03   3.390E-05   8.856E+00   8.000E+00   0.000E+00   1.249E-02   8.124E+02   4.592E+00   4.189E+02   6.370E-01   2.452E+21  -7.142E-03   2.696E+01   2.421E+02   1.044E+00   0.000E+00   5.000E+00
   3.329E+00   4.833E-02  51   1   3.382E+01   0.000E+00   1.200E+01   2.193E+01   4.453E+01   8.859E-07   2.101E+03  -3.146E-05   8.898E+00   8.000E+00   0.000E+00   8.230E-03   8.690E+02   4.609E+00   4.245E+02   6.335E-01   1.911E+21  -5.739E-03   2.705E+01   2.410E+02   1.043E+00   0.000E+00   5.000E+00
   3.208E+00   3.961E-02  52   1   3.451E+01   0.000E+00   1.200E+01   2.193E+01   4.929E+01   1.020E-06   2.037E+03  -1.197E-04   8.946E+00   8.000E+00   0.000E+00   4.781E-03   9.304E+02   4.629E+00   4.316E+02   6.301E-01   1.475E+21  -4.047E-03   2.714E+01   2.398E+02   1.041E+00   0.000E+00   5.000E+00
   3.071E+00   3.165E-02  53   1   3.528E+01   0.000E+00   1.200E+01   2.193E+01   5.470E+01   1.162E-06   1.972E+03  -9.259E-05   9.001E+00   8.000E+00   0.000E+00   2.261E-03   9.946E+02   4.640E+00   4.404E+02   6.254E-01   1.128E+21  -2.020E-03   2.724E+01   2.388E+02   1.041E+00   0.000E+00   5.000E+00
   2.915E+00   2.383E-02  54   1   3.618E+01   0.000E+00   1.200E+01   2.193E+01   6.155E+01   1.334E-06   1.900E+03  -3.491E-05   9.070E+00   8.000E+00   0.000E+00   2.618E-03   7.774E+02   4.661E+00   4.519E+02   6.207E-01   8.338E+20  -0.000E+00   2.735E+01   2.374E+02   1.039E+00   0.000E+00   5.000E+00
   2.757E+00   1.657E-02  55   1   3.728E+01   0.000E+00   1.200E+01   2.193E+01   7.005E+01   1.510E-06   1.813E+03   9.352E-06   9.159E+00   8.000E+00   0.000E+00   6.314E-04   8.289E+02   4.676E+00   4.685E+02   6.173E-01   6.000E+20  -0.000E+00   2.746E+01   2.366E+02   1.039E+00   0.000E+00   5.000E+00
   2.602E+00   9.126E-03  56   1   3.862E+01   0.000E+00   1.200E+01   2.193E+01   8.179E+01   1.673E-06   1.710E+03   2.388E-05   9.276E+00   8.000E+00   0.000E+00   3.474E-04   6.685E+02   4.294E+00   4.849E+02   5.663E-01   3.736E+20  -0.000E+00   2.755E+01   2.362E+02   1.041E+00   0.000E+00   5.000E+00
   2.442E+00   0.000E+00  57   1   4.016E+01   0.000E+00   1.200E+01   2.193E+01   9.777E+01   2.137E-06   1.595E+03   1.521E-13   9.425E+00   8.000E+00   0.000E+00   0.000E+00   1.000E+03   1.625E-12   1.432E-07   4.314E-11   1.822E+10  -0.000E+00   0.000E+00   5.000E+03   0.000E+00   0.000E+00   5.000E+00
   2.283E+00   0.000E+00  58   1   4.184E+01   0.000E+00   1.200E+01   2.193E+01   1.172E+02   2.614E-06   1.474E+03   2.610E-27   9.603E+00   8.000E+00   0.000E+00   0.000E+00   1.000E+03   2.210E-26   6.705E-21   2.020E-24   5.417E-04  -0.000E+00   0.000E+00   5.000E+03   0.000E+00   0.000E+00   5.000E+00
   2.136E+00   0.000E+00  59   1   4.359E+01   0.000E+00   1.200E+01   2.193E+01   1.403E+02   3.190E-06   1.353E+03   2.602E-25   9.813E+00   8.000E+00   0.000E+00   0.000E+00   1.000E+03   1.744E-24   6.316E-19   1.903E-22   3.255E-02  -0.000E+00   0.000E+00   5.000E+03   0.000E+00   0.000E+00   5.000E+00
   2.004E+00   0.000E+00  60   1   4.540E+01   0.000E+00   1.200E+01   2.193E+01   1.672E+02   3.866E-06   1.234E+03   1.062E-27   1.006E+01   8.000E+00   0.000E+00   0.000E+00   1.000E+03   8.798E-27   3.678E-21   1.108E-24   1.224E-04  -0.000E+00   0.000E+00   5.000E+03   0.000E+00   0.000E+00   5.000E+00
   1.884E+00   0.000E+00  61   1   4.724E+01   0.000E+00   1.200E+01   2.193E+01   1.979E+02   4.648E-06   1.118E+03   8.716E-31   1.034E+01   8.000E+00   0.000E+00   0.000E+00   1.000E+03   3.615E-30   2.197E-24   6.617E-28   4.795E-08  -0.000E+00   0.000E+00   5.000E+03   0.000E+00   0.000E+00   5.000E+00
   1.778E+00   0.000E+00  62   1   4.910E+01   0.000E+00   1.200E+01   2.193E+01   2.326E+02   5.537E-06   1.006E+03   1.697E-35   1.067E+01   8.000E+00   0.000E+00   0.000E+00   0.000E+00   1.611E-34   1.002E-28   3.018E-32   1.459E-12  -0.000E+00   0.000E+00   5.000E+03   0.000E+00   0.000E+00   5.000E+00
   1.682E+00   0.000E+00  63   1   5.099E+01   0.000E+00   1.200E+01   2.193E+01   2.716E+02   6.532E-06   8.986E+02   7.824E-39   1.105E+01   8.000E+00   0.000E+00   0.000E+00   0.000E+00   8.575E-38   6.113E-32   1.842E-35   6.048E-16  -0.000E+00   0.000E+00   5.000E+03   0.000E+00   0.000E+00   5.000E+00
   1.597E+00   0.000E+00  64   1   5.289E+01   0.000E+00   1.200E+01   2.193E+01   3.150E+02   7.634E-06   7.968E+02   5.938E-61   1.149E+01   8.000E+00   0.000E+00   0.000E+00   0.000E+00   7.533E-61   1.350E-55   4.067E-59   9.222E-40  -0.000E+00   0.000E+00   5.000E+03   0.000E+00   0.000E+00   5.000E+00
   1.521E+00   0.000E+00  65   1   5.480E+01   0.000E+00   1.200E+01   2.193E+01   3.630E+02   8.837E-06   7.004E+02  -4.419-125   1.202E+01   8.000E+00   0.000E+00   0.000E+00   0.000E+00   1.382-126   5.967-123   1.798-126   2.859-107  -0.000E+00   0.000E+00   5.000E+03   0.000E+00   0.000E+00   5.000E+00
   1.453E+00   0.000E+00  66   1   5.672E+01   0.000E+00   1.200E+01   2.193E+01   4.158E+02   1.013E-05   6.097E+02   0.000E+00   1.264E+01   8.000E+00   0.000E+00   0.000E+00   0.000E+00   0.000E+00   0.000E+00   0.000E+00   0.000E+00  -0.000E+00   0.000E+00   5.000E+03   0.000E+00   0.000E+00   5.000E+00
   1.393E+00   0.000E+00  67   1   5.865E+01   0.000E+00   1.200E+01   2.193E+01   4.738E+02   1.151E-05   5.250E+02   0.000E+00   1.339E+01   8.000E+00   0.000E+00   0.000E+00   0.000E+00   0.000E+00   0.000E+00   0.000E+00   0.000E+00  -0.000E+00   0.000E+00   5.000E+03   0.000E+00   0.000E+00   5.000E+00
   1.339E+00   0.000E+00  68   1   6.059E+01   0.000E+00   1.200E+01   2.193E+01   5.374E+02   1.297E-05   4.463E+02   0.000E+00   1.429E+01   8.000E+00   0.000E+00   0.000E+00   0.000E+00   0.000E+00   0.000E+00   0.000E+00   0.000E+00  -0.000E+00   0.000E+00   5.000E+03   0.000E+00   0.000E+00   5.000E+00
   1.290E+00   0.000E+00  69   1   6.253E+01   0.000E+00   1.200E+01   2.193E+01   6.071E+02   1.448E-05   3.739E+02   0.000E+00   1.540E+01   8.000E+00   0.000E+00   0.000E+00   0.000E+00   0.000E+00   0.000E+00   0.000E+00   0.000E+00  -0.000E+00   0.000E+00   5.000E+03   0.000E+00   0.000E+00   5.000E+00
   1.247E+00   0.000E+00  70   1   6.447E+01   0.000E+00   1.200E+01   2.193E+01   6.836E+02   1.603E-05   3.078E+02   0.000E+00   1.677E+01   8.000E+00   0.000E+00   0.000E+00   0.000E+00   0.000E+00   0.000E+00   0.000E+00   0.000E+00  -0.000E+00   0.000E+00   5.000E+03   0.000E+00   0.000E+00   5.000E+00
   1.209E+00   0.000E+00  71   1   6.642E+01   0.000E+00   1.200E+01   2.193E+01   7.679E+02   1.759E-05   2.483E+02   0.000E+00   1.850E+01   8.000E+00   0.000E+00   0.000E+00   0.000E+00   0.000E+00   0.000E+00   0.000E+00   0.000E+00  -0.000E+00   0.000E+00   5.000E+03   0.000E+00   0.000E+00   5.000E+00
   1.175E+00   0.000E+00  72   1   6.838E+01   0.000E+00   1.200E+01   2.193E+01   8.614E+02   1.916E-05   1.953E+02   0.000E+00   2.073E+01   8.000E+00   0.000E+00   0.000E+00   0.000E+00   0.000E+00   0.000E+00   0.000E+00   0.000E+00  -0.000E+00   0.000E+00   5.000E+03   0.000E+00   0.000E+00   5.000E+00
   1.145E+00   0.000E+00  73   1   7.034E+01   0.000E+00   1.200E+01   2.193E+01   9.660E+02   2.070E-05   1.488E+02   0.000E+00   2.366E+01   8.000E+00   0.000E+00   0.000E+00   0.000E+00   0.000E+00   0.000E+00   0.000E+00   0.000E+00  -0.000E+00   0.000E+00   5.000E+03   0.000E+00   0.000E+00   5.000E+00
   1.119E+00   0.000E+00  74   1   7.230E+01   0.000E+00   1.200E+01   2.193E+01   1.085E+03   2.218E-05   1.089E+02   0.000E+00   2.763E+01   8.000E+00   0.000E+00   0.000E+00   0.000E+00   0.000E+00   0.000E+00   0.000E+00   0.000E+00  -0.000E+00   0.000E+00   5.000E+03   0.000E+00   0.000E+00   5.000E+00
   1.096E+00   0.000E+00  75   1   7.426E+01   0.000E+00   1.200E+01   2.193E+01   1.221E+03   2.360E-05   7.534E+01   0.000E+00   3.317E+01   8.000E+00   0.000E+00   0.000E+00   0.000E+00   0.000E+00   0.000E+00   0.000E+00   0.000E+00  -0.000E+00   0.000E+00   5.000E+03   0.000E+00   0.000E+00   5.000E+00
   1.077E+00   0.000E+00  76   1   7.622E+01   0.000E+00   1.200E+01   2.193E+01   1.382E+03   2.491E-05   4.803E+01   0.000E+00   4.127E+01   8.000E+00   0.000E+00   0.000E+00   0.000E+00   0.000E+00   0.000E+00   0.000E+00   0.000E+00  -0.000E+00   0.000E+00   5.000E+03   0.000E+00   0.000E+00   5.000E+00
   1.060E+00   0.000E+00  77   1   7.819E+01   0.000E+00   1.200E+01   2.193E+01   1.579E+03   2.611E-05   2.661E+01   0.000E+00   5.375E+01   8.000E+00   0.000E+00   0.000E+00   0.000E+00   0.000E+00   0.000E+00   0.000E+00   0.000E+00  -0.000E+00   0.000E+00   5.000E+03   0.000E+00   0.000E+00   5.000E+00
   1.046E+00   0.000E+00  78   1   8.016E+01   0.000E+00   1.200E+01   2.193E+01   1.828E+03   2.716E-05   1.061E+01   0.000E+00   7.447E+01   8.000E+00   0.000E+00   0.000E+00   0.000E+00   0.000E+00   0.000E+00   0.000E+00   0.000E+00  -0.000E+00   0.000E+00   5.000E+03   0.000E+00   0.000E+00   5.000E+00
   6.831E+00   4.677E+00   1   2   1.000E+00   1.309E-01   1.250E+01   2.275E+01  -1.000E-09  -1.000E+00   1.263E+04   0.000E+00   8.001E+00   8.000E+00   0.000E+00   0.000E+00   0.000E+00  -1.000E+00  -1.000E+00  -1.670E-26  -6.667E-01   3.085E-02  -5.988E+20   1.044E-08  -1.000E+09   0.000E+00   5.000E+00
   6.831E+00   4.677E+00   2   2   2.806E+00   1.309E-01   1.250E+01   2.275E+01  -1.000E-09  -1.000E+00   1.230E+04   0.000E+00   8.005E+00   8.000E+00   0.000E+00   0.000E+00   0.000E+00  -1.000E+00  -1.000E+00  -1.670E-26  -6.667E-01   3.001E-02  -5.988E+20   1.044E-08  -1.000E+09   0.000E+00   5.000E+00
   6.831E+00   4.677E+00   3   2   4.560E+00   1.309E-01   1.250E+01   2.275E+01  -1.000E-09  -1.000E+00   1.185E+04   0.000E+00   8.013E+00   8.000E+00   0.000E+00   0.000E+00   0.000E+00  -1.000E+00  -1.000E+00  -1.670E-26  -6.667E-01   2.873E-02  -5.988E+20   1.044E-08  -1.000E+09   0.000E+00   5.000E+00
   6.831E+00   4.677E+00   4   2   6.234E+00   1.309E-01   1.250E+01   2.275E+01  -1.000E-09  -1.000E+00   1.131E+04   0.000E+00   8.024E+00   8.000E+00   0.000E+00   0.000E+00   0.000E+00  -1.000E+00  -1.000E+00  -1.670E-26  -6.667E-01   2.650E-02  -5.988E+20   1.044E-08  -1.000E+09   0.000E+00   5.000E+00
   6.831E+00   4.677E+00   5   2   7.778E+00   1.309E-01   1.250E+01   2.275E+01  -1.000E-09  -1.000E+00   1.072E+04   0.000E+00   8.037E+00   8.000E+00   0.000E+00   0.000E+00   0.000E+00  -1.000E+00  -1.000E+00  -1.670E-26  -6.667E-01   2.327E-02  -5.988E+20   1.044E-08  -1.000E+09   0.000E+00   5.000E+00
   6.831E+00   4.677E+00   6   2   9.121E+00   1.309E-01   1.250E+01   2.275E+01  -1.000E-09  -1.000E+00   1.016E+04   0.000E+00   8.052E+00   8.000E+00   0.000E+00   0.000E+00   0.000E+00  -1.000E+00  -1.000E+00  -1.670E-26  -6.667E-01   2.048E-02  -5.988E+20   1.044E-08  -1.000E+09   0.000E+00   5.000E+00
   6.831E+00   4.677E+00   7   2   1.022E+01   1.309E-01   1.250E+01   2.275E+01  -1.000E-09  -1.000E+00   9.673E+03   0.000E+00   8.065E+00   8.000E+00   0.000E+00   0.000E+00   0.000E+00  -1.000E+00  -1.000E+00  -1.670E-26  -6.667E-01   1.826E-02  -5.988E+20   1.044E-08  -1.000E+09   0.000E+00   5.000E+00
   6.831E+00   4.677E+00   8   2   1.112E+01   1.309E-01   1.250E+01   2.275E+01  -1.000E-09  -1.000E+00   9.258E+03   0.000E+00   8.077E+00   8.000E+00   0.000E+00   0.000E+00   0.000E+00  -1.000E+00  -1.000E+00  -1.670E-26  -6.667E-01   1.651E-02  -5.988E+20   1.044E-08  -1.000E+09   0.000E+00   5.000E+00
   6.831E+00   4.677E+00   9   2   1.188E+01   1.309E-01   1.250E+01   2.275E+01  -1.000E-09  -1.000E+00   8.893E+03   0.000E+00   8.089E+00   8.000E+00   0.000E+00   0.000E+00   0.000E+00  -1.000E+00  -1.000E+00  -1.670E-26  -6.667E-01   1.507E-02  -5.988E+20   1.044E-08  -1.000E+09   0.000E+00   5.000E+00
   6.831E+00   4.677E+00  10   2   1.257E+01   1.309E-01   1.250E+01   2.275E+01  -1.000E-09  -1.000E+00   8.560E+03   0.000E+00   8.099E+00   8.000E+00   0.000E+00   0.000E+00   0.000E+00  -1.000E+00  -1.000E+00  -1.670E-26  -6.667E-01   1.384E-02  -5.988E+20   1.044E-08  -1.000E+09   0.000E+00   5.000E+00
   6.831E+00   4.677E+00  11   2   1.321E+01   1.309E-01   1.250E+01   2.275E+01  -1.000E-09  -1.000E+00   8.249E+03   0.000E+00   8.110E+00   8.000E+00   0.000E+00   0.000E+00   0.000E+00  -1.000E+00  -1.000E+00  -1.670E-26  -6.667E-01   1.274E-02  -5.988E+20   1.044E-08  -1.000E+09   0.000E+00   5.000E+00
   6.831E+00   4.677E+00  12   2   1.381E+01   1.309E-01   1.250E+01   2.275E+01  -1.000E-09  -1.000E+00   7.952E+03   0.000E+00   8.121E+00   8.000E+00   0.000E+00   0.000E+00   0.000E+00  -1.000E+00  -1.000E+00  -1.670E-26  -6.667E-01   1.175E-02  -5.988E+20   1.044E-08  -1.000E+09   0.000E+00   5.000E+00
   6.831E+00   4.677E+00  13   2   1.439E+01   1.309E-01   1.250E+01   2.275E+01  -1.000E-09  -1.000E+00   7.665E+03   0.000E+00   8.132E+00   8.000E+00   0.000E+00   0.000E+00   0.000E+00  -1.000E+00  -1.000E+00  -1.670E-26  -6.667E-01   1.086E-02  -5.988E+20   1.044E-08  -1.000E+09   0.000E+00   5.000E+00
   6.831E+00   4.677E+00  14   2   1.494E+01   1.309E-01   1.250E+01   2.275E+01  -1.000E-09  -1.000E+00   7.387E+03   0.000E+00   8.142E+00   8.000E+00   0.000E+00   0.000E+00   0.000E+00  -1.000E+00  -1.000E+00  -1.670E-26  -6.667E-01   1.002E-02  -5.988E+20   1.044E-08  -1.000E+09   0.000E+00   5.000E+00
   6.831E+00   4.677E+00  15   2   1.549E+01   1.309E-01   1.250E+01   2.275E+01  -1.000E-09  -1.000E+00   7.115E+03   0.000E+00   8.154E+00   8.000E+00   0.000E+00   0.000E+00   0.000E+00  -1.000E+00  -1.000E+00  -1.670E-26  -6.667E-01   9.288E-03  -5.988E+20   1.044E-08  -1.000E+09   0.000E+00   5.000E+00
   6.831E+00   4.677E+00  16   2   1.602E+01   1.309E-01   1.250E+01   2.275E+01  -1.000E-09  -1.000E+00   6.849E+03   0.000E+00   8.165E+00   8.000E+00   0.000E+00   0.000E+00   0.000E+00  -1.000E+00  -1.000E+00  -1.670E-26  -6.667E-01   8.578E-03  -5.988E+20   1.044E-08  -1.000E+09   0.000E+00   5.000E+00
   6.831E+00   4.677E+00  17   2   1.654E+01   1.309E-01   1.250E+01   2.275E+01  -1.000E-09  -1.000E+00   6.586E+03   0.000E+00   8.176E+00   8.000E+00   0.000E+00   0.000E+00   0.000E+00  -1.000E+00  -1.000E+00  -1.670E-26  -6.667E-01   7.966E-03  -5.988E+20   1.044E-08  -1.000E+09   0.000E+00   5.000E+00